<?xml version="1.0" encoding="UTF-8"?>

<!-- generated on 2025-05-05 12:31:19 by Eclipse SUMO sumo Version 1.22.0
<sumoConfiguration xmlns:xsi="http://www.w3.org/2001/XMLSchema-instance" xsi:noNamespaceSchemaLocation="http://sumo.dlr.de/xsd/sumoConfiguration.xsd">

    <input>
        <net-file value="net.net.xml"/>
        <route-files value="routes.xml"/>
        <additional-files value="rsu.add.xml"/>
    </input>

    <output>
        <fcd-output value="mobility_trace.fcd.xml"/>
        <fcd-output.geo value="false"/>
    </output>

    <time>
        <end value="60"/>
    </time>

</sumoConfiguration>
-->

<fcd-export xmlns:xsi="http://www.w3.org/2001/XMLSchema-instance" xsi:noNamespaceSchemaLocation="http://sumo.dlr.de/xsd/fcd_file.xsd">
    <timestep time="0.00">
        <vehicle id="0.0" x="592.00" y="221.53" angle="180.00" type="DEFAULT_VEHTYPE" speed="0.00" pos="64.87" lane="G3G2_0" slope="0.00"/>
        <vehicle id="1.0" x="208.00" y="865.47" angle="0.00" type="DEFAULT_VEHTYPE" speed="0.00" pos="51.87" lane="C8C9_0" slope="0.00"/>
        <vehicle id="10.0" x="716.91" y="792.00" angle="87.26" type="DEFAULT_VEHTYPE" speed="14.03" pos="3.31" lane="H8I8_0" slope="0.00"/>
        <vehicle id="11.0" x="349.38" y="392.00" angle="90.00" type="DEFAULT_VEHTYPE" speed="15.04" pos="35.78" lane="D4E4_0" slope="0.00"/>
        <vehicle id="12.0" x="892.00" y="343.45" angle="180.00" type="DEFAULT_VEHTYPE" speed="0.00" pos="42.95" lane="J4J3_0" slope="0.00"/>
        <vehicle id="13.0" x="108.00" y="116.77" angle="357.03" type="DEFAULT_VEHTYPE" speed="11.54" pos="3.17" lane="B1B2_0" slope="0.00"/>
        <vehicle id="14.0" x="732.29" y="308.00" angle="270.00" type="DEFAULT_VEHTYPE" speed="0.00" pos="54.11" lane="I3H3_0" slope="0.00"/>
        <vehicle id="16.0" x="508.00" y="353.30" angle="0.00" type="DEFAULT_VEHTYPE" speed="13.03" pos="39.70" lane="F3F4_0" slope="0.00"/>
        <vehicle id="17.0" x="292.00" y="732.16" angle="180.00" type="DEFAULT_VEHTYPE" speed="11.90" pos="54.24" lane="D8D7_0" slope="0.00"/>
        <vehicle id="18.0" x="792.00" y="85.96" angle="162.85" type="DEFAULT_VEHTYPE" speed="10.24" pos="0.44" lane="I1I0_0" slope="0.00"/>
        <vehicle id="19.0" x="792.00" y="337.41" angle="180.00" type="DEFAULT_VEHTYPE" speed="0.00" pos="48.99" lane="I4I3_0" slope="0.00"/>
        <vehicle id="2.0" x="708.00" y="247.54" angle="0.00" type="DEFAULT_VEHTYPE" speed="0.00" pos="33.94" lane="H2H3_0" slope="0.00"/>
        <vehicle id="20.0" x="553.49" y="908.00" angle="270.00" type="DEFAULT_VEHTYPE" speed="15.60" pos="32.91" lane="G9F9_0" slope="0.00"/>
        <vehicle id="21.0" x="192.00" y="345.18" angle="180.00" type="DEFAULT_VEHTYPE" speed="13.77" pos="41.22" lane="C4C3_0" slope="0.00"/>
        <vehicle id="22.0" x="66.09" y="8.00" angle="270.00" type="DEFAULT_VEHTYPE" speed="12.87" pos="20.31" lane="B0A0_0" slope="0.00"/>
        <vehicle id="23.0" x="92.00" y="182.01" angle="179.00" type="DEFAULT_VEHTYPE" speed="12.20" pos="4.39" lane="B2B1_0" slope="0.00"/>
        <vehicle id="24.0" x="677.34" y="192.00" angle="90.00" type="DEFAULT_VEHTYPE" speed="6.78" pos="63.74" lane="G2H2_0" slope="0.00"/>
        <vehicle id="25.0" x="308.00" y="737.04" angle="0.00" type="DEFAULT_VEHTYPE" speed="0.00" pos="23.44" lane="D7D8_0" slope="0.00"/>
        <vehicle id="26.0" x="263.37" y="692.00" angle="90.00" type="DEFAULT_VEHTYPE" speed="0.00" pos="49.77" lane="C7D7_0" slope="0.00"/>
        <vehicle id="27.0" x="583.04" y="408.00" angle="267.34" type="DEFAULT_VEHTYPE" speed="14.14" pos="3.36" lane="G4F4_0" slope="0.00"/>
        <vehicle id="28.0" x="108.00" y="850.94" angle="0.00" type="DEFAULT_VEHTYPE" speed="0.00" pos="37.34" lane="B8B9_0" slope="0.00"/>
        <vehicle id="29.0" x="135.95" y="692.00" angle="90.00" type="DEFAULT_VEHTYPE" speed="13.54" pos="22.35" lane="B7C7_0" slope="0.00"/>
        <vehicle id="3.0" x="740.28" y="708.00" angle="270.00" type="DEFAULT_VEHTYPE" speed="0.00" pos="46.12" lane="I7H7_0" slope="0.00"/>
        <vehicle id="30.0" x="892.00" y="718.04" angle="180.00" type="DEFAULT_VEHTYPE" speed="5.38" pos="68.36" lane="J8J7_0" slope="0.00"/>
        <vehicle id="31.0" x="492.00" y="426.39" angle="180.00" type="DEFAULT_VEHTYPE" speed="0.00" pos="60.01" lane="F5F4_0" slope="0.00"/>
        <vehicle id="32.0" x="808.00" y="278.22" angle="0.00" type="DEFAULT_VEHTYPE" speed="0.00" pos="64.62" lane="I2I3_0" slope="0.00"/>
        <vehicle id="33.0" x="192.00" y="357.53" angle="180.00" type="DEFAULT_VEHTYPE" speed="0.00" pos="28.87" lane="C4C3_0" slope="0.00"/>
        <vehicle id="34.0" x="308.00" y="253.23" angle="0.00" type="DEFAULT_VEHTYPE" speed="15.72" pos="39.63" lane="D2D3_0" slope="0.00"/>
        <vehicle id="35.0" x="208.00" y="230.83" angle="0.00" type="DEFAULT_VEHTYPE" speed="2.63" pos="17.23" lane="C2C3_0" slope="0.00"/>
        <vehicle id="36.0" x="808.00" y="515.96" angle="354.98" type="DEFAULT_VEHTYPE" speed="16.37" pos="2.36" lane="I5I6_0" slope="0.00"/>
        <vehicle id="37.0" x="608.00" y="435.57" angle="0.00" type="DEFAULT_VEHTYPE" speed="16.03" pos="21.97" lane="G4G5_0" slope="0.00"/>
        <vehicle id="38.0" x="730.74" y="908.00" angle="270.00" type="DEFAULT_VEHTYPE" speed="0.00" pos="55.66" lane="I9H9_0" slope="0.00"/>
        <vehicle id="39.0" x="208.00" y="725.18" angle="0.00" type="DEFAULT_VEHTYPE" speed="4.72" pos="11.58" lane="C7C8_0" slope="0.00"/>
        <vehicle id="4.0" x="408.00" y="283.24" angle="0.00" type="DEFAULT_VEHTYPE" speed="13.82" pos="69.64" lane="E2E3_0" slope="0.00"/>
        <vehicle id="40.0" x="515.77" y="492.00" angle="83.83" type="DEFAULT_VEHTYPE" speed="9.99" pos="2.17" lane="F5G5_0" slope="0.00"/>
        <vehicle id="41.0" x="563.47" y="692.00" angle="90.00" type="DEFAULT_VEHTYPE" speed="12.14" pos="49.87" lane="F7G7_0" slope="0.00"/>
        <vehicle id="42.0" x="408.00" y="37.72" angle="0.00" type="DEFAULT_VEHTYPE" speed="0.00" pos="24.12" lane="E0E1_0" slope="0.00"/>
        <vehicle id="43.0" x="892.00" y="880.46" angle="180.00" type="DEFAULT_VEHTYPE" speed="15.31" pos="9.94" lane="J9J8_0" slope="0.00"/>
        <vehicle id="44.0" x="92.00" y="77.27" angle="180.00" type="DEFAULT_VEHTYPE" speed="12.51" pos="9.13" lane="B1B0_0" slope="0.00"/>
        <vehicle id="45.0" x="56.45" y="308.00" angle="270.00" type="DEFAULT_VEHTYPE" speed="14.31" pos="29.95" lane="B3A3_0" slope="0.00"/>
        <vehicle id="46.0" x="708.00" y="783.82" angle="0.00" type="DEFAULT_VEHTYPE" speed="6.23" pos="70.22" lane="H7H8_0" slope="0.00"/>
        <vehicle id="47.0" x="32.82" y="692.00" angle="90.00" type="DEFAULT_VEHTYPE" speed="15.17" pos="19.22" lane="A7B7_0" slope="0.00"/>
        <vehicle id="48.0" x="873.26" y="908.00" angle="270.00" type="DEFAULT_VEHTYPE" speed="4.87" pos="17.14" lane="J9I9_0" slope="0.00"/>
        <vehicle id="49.0" x="874.17" y="608.00" angle="270.00" type="DEFAULT_VEHTYPE" speed="14.49" pos="12.23" lane="J6I6_0" slope="0.00"/>
        <vehicle id="5.0" x="192.00" y="244.79" angle="180.00" type="DEFAULT_VEHTYPE" speed="0.00" pos="41.61" lane="C3C2_0" slope="0.00"/>
        <vehicle id="50.0" x="31.17" y="92.00" angle="90.00" type="DEFAULT_VEHTYPE" speed="13.85" pos="17.57" lane="A1B1_0" slope="0.00"/>
        <vehicle id="51.0" x="527.31" y="708.00" angle="270.00" type="DEFAULT_VEHTYPE" speed="0.00" pos="59.09" lane="G7F7_0" slope="0.00"/>
        <vehicle id="52.0" x="220.08" y="692.00" angle="90.00" type="DEFAULT_VEHTYPE" speed="9.21" pos="6.48" lane="C7D7_0" slope="0.00"/>
        <vehicle id="53.0" x="92.00" y="237.76" angle="180.00" type="DEFAULT_VEHTYPE" speed="0.00" pos="48.64" lane="B3B2_0" slope="0.00"/>
        <vehicle id="54.0" x="408.00" y="565.69" angle="0.00" type="DEFAULT_VEHTYPE" speed="0.00" pos="52.09" lane="E5E6_0" slope="0.00"/>
        <vehicle id="55.0" x="808.00" y="557.01" angle="0.00" type="DEFAULT_VEHTYPE" speed="16.24" pos="43.41" lane="I5I6_0" slope="0.00"/>
        <vehicle id="56.0" x="436.05" y="8.00" angle="270.00" type="DEFAULT_VEHTYPE" speed="0.00" pos="50.35" lane="F0E0_0" slope="0.00"/>
        <vehicle id="57.0" x="881.67" y="792.00" angle="90.00" type="DEFAULT_VEHTYPE" speed="0.00" pos="68.07" lane="I8J8_0" slope="0.00"/>
        <vehicle id="58.0" x="216.52" y="108.00" angle="270.00" type="DEFAULT_VEHTYPE" speed="0.00" pos="69.88" lane="D1C1_0" slope="0.00"/>
        <vehicle id="59.0" x="608.00" y="36.01" angle="0.00" type="DEFAULT_VEHTYPE" speed="13.83" pos="22.41" lane="G0G1_0" slope="0.00"/>
        <vehicle id="6.0" x="8.00" y="349.46" angle="0.00" type="DEFAULT_VEHTYPE" speed="0.00" pos="35.86" lane="A3A4_0" slope="0.00"/>
        <vehicle id="60.0" x="755.83" y="392.00" angle="90.00" type="DEFAULT_VEHTYPE" speed="14.39" pos="42.23" lane="H4I4_0" slope="0.00"/>
        <vehicle id="61.0" x="692.00" y="574.14" angle="180.00" type="DEFAULT_VEHTYPE" speed="5.41" pos="12.26" lane="H6H5_0" slope="0.00"/>
        <vehicle id="62.0" x="8.00" y="82.94" angle="0.00" type="DEFAULT_VEHTYPE" speed="12.10" pos="73.34" lane="A0A1_0" slope="0.00"/>
        <vehicle id="63.0" x="26.95" y="192.00" angle="90.00" type="DEFAULT_VEHTYPE" speed="4.41" pos="13.35" lane="A2B2_0" slope="0.00"/>
        <vehicle id="64.0" x="860.31" y="492.00" angle="90.00" type="DEFAULT_VEHTYPE" speed="13.20" pos="46.71" lane="I5J5_0" slope="0.00"/>
        <vehicle id="65.0" x="324.65" y="92.00" angle="90.00" type="DEFAULT_VEHTYPE" speed="14.11" pos="11.05" lane="D1E1_0" slope="0.00"/>
        <vehicle id="66.0" x="815.63" y="492.00" angle="82.95" type="DEFAULT_VEHTYPE" speed="10.19" pos="2.03" lane="I5J5_0" slope="0.00"/>
        <vehicle id="67.0" x="133.90" y="-8.00" angle="90.00" type="DEFAULT_VEHTYPE" speed="0.00" pos="20.30" lane="B0C0_0" slope="0.00"/>
        <vehicle id="68.0" x="8.00" y="855.59" angle="0.00" type="DEFAULT_VEHTYPE" speed="12.26" pos="41.99" lane="A8A9_0" slope="0.00"/>
        <vehicle id="69.0" x="618.83" y="508.00" angle="270.00" type="DEFAULT_VEHTYPE" speed="4.87" pos="67.57" lane="H5G5_0" slope="0.00"/>
        <vehicle id="70.0" x="408.00" y="726.63" angle="0.00" type="DEFAULT_VEHTYPE" speed="14.45" pos="13.03" lane="E7E8_0" slope="0.00"/>
        <vehicle id="71.0" x="208.00" y="785.84" angle="0.00" type="DEFAULT_VEHTYPE" speed="0.00" pos="72.24" lane="C7C8_0" slope="0.00"/>
        <vehicle id="72.0" x="436.45" y="192.00" angle="90.00" type="DEFAULT_VEHTYPE" speed="0.00" pos="22.85" lane="E2F2_0" slope="0.00"/>
        <vehicle id="73.0" x="538.28" y="292.00" angle="90.00" type="DEFAULT_VEHTYPE" speed="0.00" pos="24.68" lane="F3G3_0" slope="0.00"/>
        <vehicle id="74.0" x="219.86" y="92.00" angle="90.00" type="DEFAULT_VEHTYPE" speed="13.06" pos="6.26" lane="C1D1_0" slope="0.00"/>
        <vehicle id="75.0" x="846.84" y="908.00" angle="270.00" type="DEFAULT_VEHTYPE" speed="0.00" pos="43.56" lane="J9I9_0" slope="0.00"/>
        <vehicle id="76.0" x="371.32" y="408.00" angle="270.00" type="DEFAULT_VEHTYPE" speed="4.45" pos="15.08" lane="E4D4_0" slope="0.00"/>
        <vehicle id="77.0" x="73.25" y="408.00" angle="270.00" type="DEFAULT_VEHTYPE" speed="5.23" pos="13.15" lane="B4A4_0" slope="0.00"/>
        <vehicle id="78.0" x="308.00" y="417.01" angle="357.42" type="DEFAULT_VEHTYPE" speed="9.52" pos="3.41" lane="D4D5_0" slope="0.00"/>
        <vehicle id="79.0" x="192.00" y="380.58" angle="180.00" type="DEFAULT_VEHTYPE" speed="9.68" pos="5.82" lane="C4C3_0" slope="0.00"/>
        <vehicle id="8.0" x="208.00" y="366.15" angle="0.00" type="DEFAULT_VEHTYPE" speed="0.00" pos="52.55" lane="C3C4_0" slope="0.00"/>
        <vehicle id="80.0" x="39.21" y="792.00" angle="90.00" type="DEFAULT_VEHTYPE" speed="0.00" pos="25.61" lane="A8B8_0" slope="0.00"/>
        <vehicle id="82.0" x="770.94" y="408.00" angle="270.00" type="DEFAULT_VEHTYPE" speed="3.48" pos="15.46" lane="I4H4_0" slope="0.00"/>
        <vehicle id="83.0" x="136.99" y="508.00" angle="270.00" type="DEFAULT_VEHTYPE" speed="12.30" pos="49.41" lane="C5B5_0" slope="0.00"/>
        <vehicle id="84.0" x="155.59" y="308.00" angle="270.00" type="DEFAULT_VEHTYPE" speed="13.43" pos="30.81" lane="C3B3_0" slope="0.00"/>
        <vehicle id="85.0" x="908.00" y="158.38" angle="0.00" type="DEFAULT_VEHTYPE" speed="0.00" pos="44.78" lane="J1J2_0" slope="0.00"/>
        <vehicle id="86.0" x="392.00" y="658.03" angle="180.00" type="DEFAULT_VEHTYPE" speed="0.00" pos="28.37" lane="E7E6_0" slope="0.00"/>
        <vehicle id="88.0" x="150.93" y="92.00" angle="90.00" type="DEFAULT_VEHTYPE" speed="14.48" pos="37.33" lane="B1C1_0" slope="0.00"/>
        <vehicle id="89.0" x="473.70" y="192.00" angle="90.00" type="DEFAULT_VEHTYPE" speed="8.60" pos="60.10" lane="E2F2_0" slope="0.00"/>
        <vehicle id="9.0" x="643.81" y="908.00" angle="270.00" type="DEFAULT_VEHTYPE" speed="14.20" pos="42.59" lane="H9G9_0" slope="0.00"/>
        <vehicle id="90.0" x="743.97" y="92.00" angle="90.00" type="DEFAULT_VEHTYPE" speed="14.12" pos="30.37" lane="H1I1_0" slope="0.00"/>
        <vehicle id="91.0" x="908.00" y="740.18" angle="0.00" type="DEFAULT_VEHTYPE" speed="0.00" pos="26.58" lane="J7J8_0" slope="0.00"/>
        <vehicle id="92.0" x="484.71" y="-8.00" angle="90.00" type="DEFAULT_VEHTYPE" speed="0.00" pos="71.11" lane="E0F0_0" slope="0.00"/>
        <vehicle id="93.0" x="792.00" y="384.66" angle="171.16" type="DEFAULT_VEHTYPE" speed="12.80" pos="1.74" lane="I4I3_0" slope="0.00"/>
        <vehicle id="94.0" x="235.64" y="-8.00" angle="90.00" type="DEFAULT_VEHTYPE" speed="0.00" pos="22.04" lane="C0D0_0" slope="0.00"/>
        <vehicle id="95.0" x="408.00" y="221.22" angle="0.00" type="DEFAULT_VEHTYPE" speed="14.68" pos="7.62" lane="E2E3_0" slope="0.00"/>
        <vehicle id="96.0" x="122.66" y="608.00" angle="270.00" type="DEFAULT_VEHTYPE" speed="0.00" pos="63.74" lane="C6B6_0" slope="0.00"/>
        <vehicle id="97.0" x="408.00" y="459.12" angle="0.00" type="DEFAULT_VEHTYPE" speed="12.59" pos="45.52" lane="E4E5_0" slope="0.00"/>
        <vehicle id="98.0" x="580.93" y="392.00" angle="90.00" type="DEFAULT_VEHTYPE" speed="0.00" pos="67.33" lane="F4G4_0" slope="0.00"/>
        <vehicle id="99.0" x="892.00" y="852.56" angle="180.00" type="DEFAULT_VEHTYPE" speed="0.00" pos="37.84" lane="J9J8_0" slope="0.00"/>
    </timestep>
    <timestep time="1.00">
        <vehicle id="0.0" x="595.20" y="220.10" angle="180.00" type="DEFAULT_VEHTYPE" speed="1.44" pos="66.30" lane="G3G2_1" slope="0.00"/>
        <vehicle id="1.0" x="204.80" y="867.64" angle="0.00" type="DEFAULT_VEHTYPE" speed="2.17" pos="54.04" lane="C8C9_1" slope="0.00"/>
        <vehicle id="10.0" x="729.98" y="792.00" angle="90.00" type="DEFAULT_VEHTYPE" speed="13.07" pos="16.38" lane="H8I8_0" slope="0.00"/>
        <vehicle id="11.0" x="363.70" y="395.20" angle="90.00" type="DEFAULT_VEHTYPE" speed="14.32" pos="50.10" lane="D4E4_1" slope="0.00"/>
        <vehicle id="12.0" x="895.20" y="342.01" angle="180.00" type="DEFAULT_VEHTYPE" speed="1.44" pos="44.39" lane="J4J3_1" slope="0.00"/>
        <vehicle id="13.0" x="104.80" y="127.48" angle="0.00" type="DEFAULT_VEHTYPE" speed="10.71" pos="13.88" lane="B1B2_1" slope="0.00"/>
        <vehicle id="14.0" x="730.89" y="304.80" angle="270.00" type="DEFAULT_VEHTYPE" speed="1.40" pos="55.51" lane="I3H3_1" slope="0.00"/>
        <vehicle id="16.0" x="504.80" y="365.41" angle="0.00" type="DEFAULT_VEHTYPE" speed="12.12" pos="51.81" lane="F3F4_1" slope="0.00"/>
        <vehicle id="17.0" x="292.00" y="720.26" angle="180.00" type="DEFAULT_VEHTYPE" speed="11.89" pos="66.14" lane="D8D7_0" slope="0.00"/>
        <vehicle id="18.0" x="795.20" y="73.63" angle="180.00" type="DEFAULT_VEHTYPE" speed="12.33" pos="12.77" lane="I1I0_1" slope="0.00"/>
        <vehicle id="19.0" x="795.20" y="335.02" angle="180.00" type="DEFAULT_VEHTYPE" speed="2.39" pos="51.38" lane="I4I3_1" slope="0.00"/>
        <vehicle id="2.0" x="704.80" y="249.04" angle="0.00" type="DEFAULT_VEHTYPE" speed="1.51" pos="35.44" lane="H2H3_1" slope="0.00"/>
        <vehicle id="20.0" x="539.10" y="904.80" angle="270.00" type="DEFAULT_VEHTYPE" speed="14.38" pos="47.30" lane="G9F9_1" slope="0.00"/>
        <vehicle id="21.0" x="195.20" y="331.98" angle="180.00" type="DEFAULT_VEHTYPE" speed="13.19" pos="54.42" lane="C4C3_1" slope="0.00"/>
        <vehicle id="22.0" x="54.47" y="8.00" angle="270.00" type="DEFAULT_VEHTYPE" speed="11.61" pos="31.93" lane="B0A0_0" slope="0.00"/>
        <vehicle id="23.0" x="92.00" y="170.80" angle="180.00" type="DEFAULT_VEHTYPE" speed="11.21" pos="15.60" lane="B2B1_0" slope="0.00"/>
        <vehicle id="24.0" x="683.85" y="195.20" angle="90.00" type="DEFAULT_VEHTYPE" speed="6.50" pos="70.25" lane="G2H2_1" slope="0.00"/>
        <vehicle id="25.0" x="304.80" y="739.53" angle="0.00" type="DEFAULT_VEHTYPE" speed="2.49" pos="25.93" lane="D7D8_1" slope="0.00"/>
        <vehicle id="26.0" x="265.58" y="695.20" angle="90.00" type="DEFAULT_VEHTYPE" speed="2.22" pos="51.98" lane="C7D7_1" slope="0.00"/>
        <vehicle id="27.0" x="568.95" y="404.80" angle="270.00" type="DEFAULT_VEHTYPE" speed="14.09" pos="17.45" lane="G4F4_1" slope="0.00"/>
        <vehicle id="28.0" x="104.80" y="852.63" angle="0.00" type="DEFAULT_VEHTYPE" speed="1.68" pos="39.03" lane="B8B9_1" slope="0.00"/>
        <vehicle id="29.0" x="148.84" y="692.00" angle="90.00" type="DEFAULT_VEHTYPE" speed="12.88" pos="35.24" lane="B7C7_0" slope="0.00"/>
        <vehicle id="3.0" x="738.30" y="704.80" angle="270.00" type="DEFAULT_VEHTYPE" speed="1.98" pos="48.10" lane="I7H7_1" slope="0.00"/>
        <vehicle id="30.0" x="892.00" y="713.68" angle="180.00" type="DEFAULT_VEHTYPE" speed="4.35" pos="72.72" lane="J8J7_0" slope="0.00"/>
        <vehicle id="31.0" x="495.20" y="424.38" angle="180.00" type="DEFAULT_VEHTYPE" speed="2.01" pos="62.02" lane="F5F4_1" slope="0.00"/>
        <vehicle id="32.0" x="804.80" y="279.65" angle="0.00" type="DEFAULT_VEHTYPE" speed="1.43" pos="66.05" lane="I2I3_1" slope="0.00"/>
        <vehicle id="33.0" x="195.20" y="356.23" angle="180.00" type="DEFAULT_VEHTYPE" speed="1.30" pos="30.17" lane="C4C3_1" slope="0.00"/>
        <vehicle id="34.0" x="304.80" y="268.39" angle="0.00" type="DEFAULT_VEHTYPE" speed="15.17" pos="54.79" lane="D2D3_1" slope="0.00"/>
        <vehicle id="35.0" x="204.80" y="235.25" angle="0.00" type="DEFAULT_VEHTYPE" speed="4.42" pos="21.65" lane="C2C3_1" slope="0.00"/>
        <vehicle id="36.0" x="804.80" y="531.94" angle="0.00" type="DEFAULT_VEHTYPE" speed="15.98" pos="18.34" lane="I5I6_1" slope="0.00"/>
        <vehicle id="37.0" x="604.80" y="451.21" angle="0.00" type="DEFAULT_VEHTYPE" speed="15.64" pos="37.61" lane="G4G5_1" slope="0.00"/>
        <vehicle id="38.0" x="729.39" y="904.80" angle="270.00" type="DEFAULT_VEHTYPE" speed="1.36" pos="57.01" lane="I9H9_1" slope="0.00"/>
        <vehicle id="39.0" x="204.80" y="731.24" angle="0.00" type="DEFAULT_VEHTYPE" speed="6.06" pos="17.64" lane="C7C8_1" slope="0.00"/>
        <vehicle id="4.0" x="404.80" y="296.01" angle="0.00" type="DEFAULT_VEHTYPE" speed="12.77" pos="9.61" lane=":E3_13_1" slope="0.00"/>
        <vehicle id="40.0" x="528.17" y="495.20" angle="90.00" type="DEFAULT_VEHTYPE" speed="12.40" pos="14.57" lane="F5G5_1" slope="0.00"/>
        <vehicle id="41.0" x="575.50" y="695.20" angle="90.00" type="DEFAULT_VEHTYPE" speed="12.03" pos="61.90" lane="F7G7_1" slope="0.00"/>
        <vehicle id="42.0" x="404.80" y="39.45" angle="0.00" type="DEFAULT_VEHTYPE" speed="1.73" pos="25.85" lane="E0E1_1" slope="0.00"/>
        <vehicle id="43.0" x="892.00" y="869.65" angle="180.00" type="DEFAULT_VEHTYPE" speed="10.81" pos="20.75" lane="J9J8_0" slope="0.00"/>
        <vehicle id="44.0" x="92.00" y="65.02" angle="180.00" type="DEFAULT_VEHTYPE" speed="12.25" pos="21.38" lane="B1B0_0" slope="0.00"/>
        <vehicle id="45.0" x="42.72" y="308.00" angle="270.00" type="DEFAULT_VEHTYPE" speed="13.74" pos="43.68" lane="B3A3_0" slope="0.00"/>
        <vehicle id="46.0" x="708.90" y="789.76" angle="10.51" type="DEFAULT_VEHTYPE" speed="6.12" pos="3.53" lane=":H8_12_0" slope="0.00"/>
        <vehicle id="47.0" x="47.77" y="692.00" angle="90.00" type="DEFAULT_VEHTYPE" speed="14.94" pos="34.17" lane="A7B7_0" slope="0.00"/>
        <vehicle id="48.0" x="867.06" y="904.80" angle="270.00" type="DEFAULT_VEHTYPE" speed="6.20" pos="23.34" lane="J9I9_1" slope="0.00"/>
        <vehicle id="49.0" x="860.32" y="608.00" angle="270.00" type="DEFAULT_VEHTYPE" speed="13.85" pos="26.08" lane="J6I6_0" slope="0.00"/>
        <vehicle id="5.0" x="195.20" y="243.24" angle="180.00" type="DEFAULT_VEHTYPE" speed="1.54" pos="43.16" lane="C3C2_1" slope="0.00"/>
        <vehicle id="50.0" x="44.38" y="92.00" angle="90.00" type="DEFAULT_VEHTYPE" speed="13.21" pos="30.78" lane="A1B1_0" slope="0.00"/>
        <vehicle id="51.0" x="525.68" y="704.80" angle="270.00" type="DEFAULT_VEHTYPE" speed="1.63" pos="60.72" lane="G7F7_1" slope="0.00"/>
        <vehicle id="52.0" x="231.81" y="695.20" angle="90.00" type="DEFAULT_VEHTYPE" speed="11.73" pos="18.21" lane="C7D7_1" slope="0.00"/>
        <vehicle id="53.0" x="95.20" y="235.77" angle="180.00" type="DEFAULT_VEHTYPE" speed="1.99" pos="50.63" lane="B3B2_1" slope="0.00"/>
        <vehicle id="54.0" x="404.80" y="568.13" angle="0.00" type="DEFAULT_VEHTYPE" speed="2.44" pos="54.53" lane="E5E6_1" slope="0.00"/>
        <vehicle id="55.0" x="804.80" y="572.62" angle="0.00" type="DEFAULT_VEHTYPE" speed="15.62" pos="59.02" lane="I5I6_1" slope="0.00"/>
        <vehicle id="56.0" x="434.39" y="4.80" angle="270.00" type="DEFAULT_VEHTYPE" speed="1.67" pos="52.01" lane="F0E0_1" slope="0.00"/>
        <vehicle id="57.0" x="883.87" y="795.20" angle="90.00" type="DEFAULT_VEHTYPE" speed="2.20" pos="70.27" lane="I8J8_1" slope="0.00"/>
        <vehicle id="58.0" x="214.12" y="104.80" angle="270.00" type="DEFAULT_VEHTYPE" speed="2.40" pos="72.28" lane="D1C1_1" slope="0.00"/>
        <vehicle id="59.0" x="604.80" y="49.75" angle="0.00" type="DEFAULT_VEHTYPE" speed="13.74" pos="36.15" lane="G0G1_1" slope="0.00"/>
        <vehicle id="6.0" x="4.80" y="350.92" angle="0.00" type="DEFAULT_VEHTYPE" speed="1.46" pos="37.32" lane="A3A4_1" slope="0.00"/>
        <vehicle id="60.0" x="769.31" y="392.00" angle="90.00" type="DEFAULT_VEHTYPE" speed="13.48" pos="55.71" lane="H4I4_0" slope="0.00"/>
        <vehicle id="61.0" x="695.20" y="567.06" angle="180.00" type="DEFAULT_VEHTYPE" speed="7.08" pos="19.34" lane="H6H5_1" slope="0.00"/>
        <vehicle id="62.0" x="4.80" y="95.93" angle="0.00" type="DEFAULT_VEHTYPE" speed="12.99" pos="9.53" lane=":A1_11_1" slope="0.00"/>
        <vehicle id="63.0" x="33.08" y="195.20" angle="90.00" type="DEFAULT_VEHTYPE" speed="6.13" pos="19.48" lane="A2B2_1" slope="0.00"/>
        <vehicle id="64.0" x="872.66" y="492.00" angle="90.00" type="DEFAULT_VEHTYPE" speed="12.35" pos="59.06" lane="I5J5_0" slope="0.00"/>
        <vehicle id="65.0" x="337.91" y="95.20" angle="90.00" type="DEFAULT_VEHTYPE" speed="13.26" pos="24.31" lane="D1E1_1" slope="0.00"/>
        <vehicle id="66.0" x="827.92" y="495.20" angle="90.00" type="DEFAULT_VEHTYPE" speed="12.29" pos="14.32" lane="I5J5_1" slope="0.00"/>
        <vehicle id="67.0" x="136.22" y="-4.80" angle="90.00" type="DEFAULT_VEHTYPE" speed="2.32" pos="22.62" lane="B0C0_1" slope="0.00"/>
        <vehicle id="68.0" x="8.00" y="867.08" angle="0.00" type="DEFAULT_VEHTYPE" speed="11.49" pos="53.48" lane="A8A9_0" slope="0.00"/>
        <vehicle id="69.0" x="614.47" y="508.00" angle="270.00" type="DEFAULT_VEHTYPE" speed="4.36" pos="71.93" lane="H5G5_0" slope="0.00"/>
        <vehicle id="7.0" x="534.66" y="408.00" angle="270.00" type="DEFAULT_VEHTYPE" speed="0.00" pos="51.74" lane="G4F4_0" slope="0.00"/>
        <vehicle id="70.0" x="404.80" y="740.78" angle="0.00" type="DEFAULT_VEHTYPE" speed="14.15" pos="27.18" lane="E7E8_1" slope="0.00"/>
        <vehicle id="71.0" x="204.80" y="786.29" angle="0.00" type="DEFAULT_VEHTYPE" speed="0.46" pos="72.69" lane="C7C8_1" slope="0.00"/>
        <vehicle id="72.0" x="438.41" y="195.20" angle="90.00" type="DEFAULT_VEHTYPE" speed="1.96" pos="24.81" lane="E2F2_1" slope="0.00"/>
        <vehicle id="73.0" x="540.03" y="295.20" angle="90.00" type="DEFAULT_VEHTYPE" speed="1.75" pos="26.43" lane="F3G3_1" slope="0.00"/>
        <vehicle id="74.0" x="232.50" y="95.20" angle="90.00" type="DEFAULT_VEHTYPE" speed="12.63" pos="18.90" lane="C1D1_1" slope="0.00"/>
        <vehicle id="75.0" x="845.47" y="904.80" angle="270.00" type="DEFAULT_VEHTYPE" speed="1.38" pos="44.93" lane="J9I9_1" slope="0.00"/>
        <vehicle id="76.0" x="365.49" y="404.80" angle="270.00" type="DEFAULT_VEHTYPE" speed="5.83" pos="20.91" lane="E4D4_1" slope="0.00"/>
        <vehicle id="77.0" x="66.33" y="404.80" angle="270.00" type="DEFAULT_VEHTYPE" speed="6.92" pos="20.07" lane="B4A4_1" slope="0.00"/>
        <vehicle id="78.0" x="304.80" y="428.77" angle="0.00" type="DEFAULT_VEHTYPE" speed="11.76" pos="15.17" lane="D4D5_1" slope="0.00"/>
        <vehicle id="79.0" x="192.00" y="371.90" angle="180.00" type="DEFAULT_VEHTYPE" speed="8.68" pos="14.50" lane="C4C3_0" slope="0.00"/>
        <vehicle id="8.0" x="204.80" y="367.66" angle="0.00" type="DEFAULT_VEHTYPE" speed="1.50" pos="54.06" lane="C3C4_1" slope="0.00"/>
        <vehicle id="80.0" x="40.66" y="795.20" angle="90.00" type="DEFAULT_VEHTYPE" speed="1.44" pos="27.06" lane="A8B8_1" slope="0.00"/>
        <vehicle id="81.0" x="192.00" y="353.22" angle="180.00" type="DEFAULT_VEHTYPE" speed="0.00" pos="33.18" lane="C4C3_0" slope="0.00"/>
        <vehicle id="82.0" x="764.94" y="404.80" angle="270.00" type="DEFAULT_VEHTYPE" speed="6.00" pos="21.46" lane="I4H4_1" slope="0.00"/>
        <vehicle id="83.0" x="125.44" y="504.80" angle="270.00" type="DEFAULT_VEHTYPE" speed="11.56" pos="60.96" lane="C5B5_1" slope="0.00"/>
        <vehicle id="84.0" x="142.68" y="304.80" angle="270.00" type="DEFAULT_VEHTYPE" speed="12.91" pos="43.72" lane="C3B3_1" slope="0.00"/>
        <vehicle id="85.0" x="904.80" y="160.30" angle="0.00" type="DEFAULT_VEHTYPE" speed="1.92" pos="46.70" lane="J1J2_1" slope="0.00"/>
        <vehicle id="86.0" x="395.20" y="656.41" angle="180.00" type="DEFAULT_VEHTYPE" speed="1.61" pos="29.99" lane="E7E6_1" slope="0.00"/>
        <vehicle id="88.0" x="164.55" y="92.00" angle="90.00" type="DEFAULT_VEHTYPE" speed="13.61" pos="50.95" lane="B1C1_0" slope="0.00"/>
        <vehicle id="89.0" x="482.19" y="192.00" angle="90.00" type="DEFAULT_VEHTYPE" speed="8.49" pos="68.59" lane="E2F2_0" slope="0.00"/>
        <vehicle id="9.0" x="630.03" y="904.80" angle="270.00" type="DEFAULT_VEHTYPE" speed="13.78" pos="56.37" lane="H9G9_1" slope="0.00"/>
        <vehicle id="90.0" x="757.48" y="95.20" angle="90.00" type="DEFAULT_VEHTYPE" speed="13.51" pos="43.88" lane="H1I1_1" slope="0.00"/>
        <vehicle id="91.0" x="904.80" y="741.81" angle="0.00" type="DEFAULT_VEHTYPE" speed="1.63" pos="28.21" lane="J7J8_1" slope="0.00"/>
        <vehicle id="92.0" x="485.83" y="-4.80" angle="90.00" type="DEFAULT_VEHTYPE" speed="1.12" pos="72.23" lane="E0F0_1" slope="0.00"/>
        <vehicle id="93.0" x="792.00" y="373.12" angle="180.00" type="DEFAULT_VEHTYPE" speed="11.54" pos="13.28" lane="I4I3_0" slope="0.00"/>
        <vehicle id="94.0" x="237.67" y="-4.80" angle="90.00" type="DEFAULT_VEHTYPE" speed="2.03" pos="24.07" lane="C0D0_1" slope="0.00"/>
        <vehicle id="95.0" x="404.80" y="234.95" angle="0.00" type="DEFAULT_VEHTYPE" speed="13.72" pos="21.35" lane="E2E3_1" slope="0.00"/>
        <vehicle id="96.0" x="120.32" y="604.80" angle="270.00" type="DEFAULT_VEHTYPE" speed="2.34" pos="66.08" lane="C6B6_1" slope="0.00"/>
        <vehicle id="97.0" x="404.80" y="471.61" angle="0.00" type="DEFAULT_VEHTYPE" speed="12.50" pos="58.01" lane="E4E5_1" slope="0.00"/>
        <vehicle id="98.0" x="582.43" y="395.20" angle="90.00" type="DEFAULT_VEHTYPE" speed="1.49" pos="68.83" lane="F4G4_1" slope="0.00"/>
        <vehicle id="99.0" x="895.20" y="851.24" angle="180.00" type="DEFAULT_VEHTYPE" speed="1.32" pos="39.16" lane="J9J8_1" slope="0.00"/>
    </timestep>
    <timestep time="2.00">
        <vehicle id="0.0" x="598.40" y="216.10" angle="180.00" type="DEFAULT_VEHTYPE" speed="3.99" pos="70.30" lane="G3G2_2" slope="0.00"/>
        <vehicle id="1.0" x="204.80" y="871.22" angle="0.00" type="DEFAULT_VEHTYPE" speed="3.58" pos="57.62" lane="C8C9_1" slope="0.00"/>
        <vehicle id="10.0" x="743.19" y="792.00" angle="90.00" type="DEFAULT_VEHTYPE" speed="13.20" pos="29.59" lane="H8I8_0" slope="0.00"/>
        <vehicle id="11.0" x="375.60" y="398.40" angle="90.00" type="DEFAULT_VEHTYPE" speed="11.90" pos="62.00" lane="D4E4_2" slope="0.00"/>
        <vehicle id="12.0" x="898.40" y="338.89" angle="180.00" type="DEFAULT_VEHTYPE" speed="3.12" pos="47.51" lane="J4J3_2" slope="0.00"/>
        <vehicle id="13.0" x="101.60" y="138.42" angle="0.00" type="DEFAULT_VEHTYPE" speed="10.94" pos="24.82" lane="B1B2_2" slope="0.00"/>
        <vehicle id="14.0" x="727.90" y="301.60" angle="270.00" type="DEFAULT_VEHTYPE" speed="3.00" pos="58.50" lane="I3H3_2" slope="0.00"/>
        <vehicle id="15.0" x="777.21" y="792.00" angle="90.00" type="DEFAULT_VEHTYPE" speed="0.00" pos="63.61" lane="H8I8_0" slope="0.00"/>
        <vehicle id="16.0" x="501.60" y="377.16" angle="0.00" type="DEFAULT_VEHTYPE" speed="11.75" pos="63.56" lane="F3F4_2" slope="0.00"/>
        <vehicle id="17.0" x="292.00" y="708.66" angle="180.00" type="DEFAULT_VEHTYPE" speed="11.60" pos="4.94" lane=":D7_1_0" slope="0.00"/>
        <vehicle id="18.0" x="798.40" y="63.62" angle="180.00" type="DEFAULT_VEHTYPE" speed="10.01" pos="22.78" lane="I1I0_2" slope="0.00"/>
        <vehicle id="19.0" x="798.40" y="330.15" angle="180.00" type="DEFAULT_VEHTYPE" speed="4.87" pos="56.25" lane="I4I3_2" slope="0.00"/>
        <vehicle id="2.0" x="701.60" y="253.13" angle="0.00" type="DEFAULT_VEHTYPE" speed="4.08" pos="39.53" lane="H2H3_2" slope="0.00"/>